# Probe 0 (0.2001 0.2001 0.0001)
#       Probe             0
#        Time
       0.0003   3.33433e+08
       0.0006   3.33433e+08
       0.0009   3.33433e+08
       0.0012   3.33433e+08
       0.0015   3.33433e+08
       0.0018   3.33433e+08
       0.0021   3.33433e+08
       0.0024   3.33433e+08
       0.0027   3.33433e+08
        0.003   3.33433e+08
       0.0033   3.33433e+08
       0.0036   3.33433e+08
       0.0039   3.33433e+08
       0.0042   3.33433e+08
       0.0045   3.33433e+08
       0.0048   3.33433e+08
       0.0051   3.33433e+08
       0.0054   3.33433e+08
       0.0057   3.33433e+08
        0.006   3.33433e+08
       0.0063   3.33433e+08
       0.0066   3.33433e+08
       0.0069   3.33433e+08
       0.0072   3.33433e+08
       0.0075   3.33433e+08
       0.0078   3.33433e+08
       0.0081   3.33433e+08
       0.0084   3.33433e+08
       0.0087   3.33433e+08
        0.009   3.33433e+08
       0.0093   3.33433e+08
       0.0096   3.33433e+08
       0.0099   3.33433e+08
       0.0102   3.33433e+08
       0.0105   3.33433e+08
       0.0108   3.33433e+08
       0.0111   3.33433e+08
       0.0114   3.33433e+08
       0.0117   3.33433e+08
        0.012   3.33433e+08
       0.0123   3.33433e+08
       0.0126   3.33433e+08
       0.0129   3.33433e+08
       0.0132   3.33433e+08
       0.0135   3.33433e+08
       0.0138   3.33433e+08
       0.0141   3.33433e+08
       0.0144   3.33433e+08
       0.0147   3.33433e+08
        0.015   3.33433e+08
       0.0153   3.33433e+08
       0.0156   3.33433e+08
       0.0159   3.33433e+08
       0.0162   3.33433e+08
       0.0165   3.33433e+08
       0.0168   3.33433e+08
       0.0171   3.33433e+08
       0.0174   3.33433e+08
       0.0177   3.33433e+08
        0.018   3.33433e+08
       0.0183   3.33433e+08
       0.0186   3.33433e+08
       0.0189   3.33433e+08
       0.0192   3.33433e+08
       0.0195   3.33433e+08
       0.0198   3.33433e+08
       0.0201   3.33433e+08
       0.0204   3.33433e+08
       0.0207   3.33433e+08
        0.021   3.33433e+08
       0.0213   3.33433e+08
       0.0216   3.33433e+08
       0.0219   3.33433e+08
       0.0222   3.33433e+08
       0.0225   3.33433e+08
       0.0228   3.33433e+08
       0.0231   3.33433e+08
       0.0234   3.33433e+08
       0.0237   3.33433e+08
        0.024   3.33433e+08
       0.0243   3.33433e+08
       0.0246   3.33433e+08
       0.0249   3.33433e+08
       0.0252   3.33433e+08
       0.0255   3.33433e+08
       0.0258   3.33433e+08
       0.0261   3.33433e+08
       0.0264   3.33433e+08
       0.0267   3.33433e+08
        0.027   3.33433e+08
       0.0273   3.33433e+08
       0.0276   3.33433e+08
       0.0279   3.33433e+08
       0.0282   3.33433e+08
       0.0285   3.33433e+08
       0.0288   3.33433e+08
       0.0291   3.33433e+08
       0.0294   3.33433e+08
       0.0297   3.33433e+08
         0.03   3.33433e+08
       0.0303   3.33433e+08
       0.0306   3.33433e+08
       0.0309   3.33433e+08
       0.0312   3.33433e+08
       0.0315   3.33433e+08
       0.0318   3.33433e+08
       0.0321   3.33433e+08
       0.0324   3.33433e+08
       0.0327   3.33433e+08
        0.033   3.33433e+08
       0.0333   3.33433e+08
       0.0336   3.33433e+08
       0.0339   3.33433e+08
       0.0342   3.33433e+08
       0.0345   3.33433e+08
       0.0348   3.33433e+08
       0.0351   3.33433e+08
       0.0354   3.33433e+08
       0.0357   3.33433e+08
        0.036   3.33433e+08
       0.0363   3.33433e+08
       0.0366   3.33433e+08
       0.0369   3.33433e+08
       0.0372   3.33433e+08
       0.0375   3.33433e+08
       0.0378   3.33433e+08
       0.0381   3.33433e+08
       0.0384   3.33433e+08
       0.0387   3.33433e+08
        0.039   3.33433e+08
       0.0393   3.33433e+08
       0.0396   3.33433e+08
       0.0399   3.33433e+08
       0.0402   3.33433e+08
       0.0405   3.33433e+08
       0.0408   3.33433e+08
       0.0411   3.33433e+08
       0.0414   3.33433e+08
       0.0417   3.33433e+08
        0.042   3.33433e+08
       0.0423   3.33433e+08
       0.0426   3.33433e+08
       0.0429   3.33433e+08
       0.0432   3.33433e+08
       0.0435   3.33433e+08
       0.0438   3.33433e+08
       0.0441   3.33433e+08
       0.0444   3.33433e+08
       0.0447   3.33433e+08
        0.045   3.33433e+08
       0.0453   3.33433e+08
       0.0456   3.33433e+08
       0.0459   3.33433e+08
       0.0462   3.33433e+08
       0.0465   3.33433e+08
       0.0468   3.33433e+08
       0.0471   3.33433e+08
       0.0474   3.33433e+08
       0.0477   3.33433e+08
        0.048   3.33433e+08
       0.0483   3.33433e+08
       0.0486   3.33433e+08
       0.0489   3.33433e+08
       0.0492   3.33433e+08
       0.0495   3.33433e+08
       0.0498   3.33433e+08
       0.0501   3.33433e+08
       0.0504   3.33433e+08
       0.0507   3.33433e+08
        0.051   3.33433e+08
       0.0513   3.33433e+08
       0.0516   3.33433e+08
       0.0519   3.33433e+08
       0.0522   3.33433e+08
       0.0525   3.33433e+08
       0.0528   3.33433e+08
       0.0531   3.33433e+08
       0.0534   3.33433e+08
       0.0537   3.33433e+08
        0.054   3.33433e+08
       0.0543   3.33433e+08
       0.0546   3.33433e+08
       0.0549   3.33433e+08
       0.0552   3.33433e+08
       0.0555   3.33433e+08
       0.0558   3.33433e+08
       0.0561   3.33433e+08
       0.0564   3.33433e+08
       0.0567   3.33433e+08
        0.057   3.33433e+08
       0.0573   3.33433e+08
       0.0576   3.33433e+08
       0.0579   3.33433e+08
       0.0582   3.33433e+08
       0.0585   3.33433e+08
       0.0588   3.33433e+08
       0.0591   3.33433e+08
       0.0594   3.33433e+08
       0.0597   3.33433e+08
         0.06   3.33433e+08
       0.0603   3.33433e+08
       0.0606   3.33433e+08
       0.0609   3.33433e+08
       0.0612   3.33433e+08
       0.0615   3.33433e+08
       0.0618   3.33433e+08
       0.0621   3.33433e+08
       0.0624   3.33433e+08
       0.0627   3.33433e+08
        0.063   3.33433e+08
       0.0633   3.33433e+08
       0.0636   3.33433e+08
       0.0639   3.33433e+08
       0.0642   3.33433e+08
       0.0645   3.33433e+08
       0.0648   3.33433e+08
       0.0651   3.33433e+08
       0.0654   3.33433e+08
       0.0657   3.33433e+08
        0.066   3.33433e+08
       0.0663   3.33433e+08
       0.0666   3.33433e+08
       0.0669   3.33433e+08
       0.0672   3.33433e+08
       0.0675   3.33433e+08
       0.0678   3.33433e+08
       0.0681   3.33433e+08
       0.0684   3.33433e+08
       0.0687   3.33433e+08
        0.069   3.33433e+08
       0.0693   3.33433e+08
       0.0696   3.33433e+08
       0.0699   3.33433e+08
       0.0702   3.33433e+08
       0.0705   3.33433e+08
       0.0708   3.33433e+08
       0.0711   3.33433e+08
       0.0714   3.33433e+08
       0.0717   3.33433e+08
        0.072   3.33433e+08
       0.0723   3.33433e+08
       0.0726   3.33433e+08
       0.0729   3.33433e+08
       0.0732   3.33433e+08
       0.0735   3.33433e+08
       0.0738   3.33433e+08
       0.0741   3.33433e+08
       0.0744   3.33433e+08
       0.0747   3.33433e+08
        0.075   3.33433e+08
       0.0753   3.33433e+08
       0.0756   3.33433e+08
       0.0759   3.33433e+08
       0.0762   3.33433e+08
       0.0765   3.33433e+08
       0.0768   3.33433e+08
       0.0771   3.33433e+08
       0.0774   3.33433e+08
       0.0777   3.33433e+08
        0.078   3.33433e+08
       0.0783   3.33433e+08
       0.0786   3.33433e+08
       0.0789   3.33433e+08
       0.0792   3.33433e+08
       0.0795   3.33433e+08
       0.0798   3.33433e+08
       0.0801   3.33433e+08
       0.0804   3.33433e+08
       0.0807   3.33433e+08
        0.081   3.33433e+08
       0.0813   3.33433e+08
       0.0816   3.33433e+08
       0.0819   3.33433e+08
       0.0822   3.33433e+08
       0.0825   3.33433e+08
       0.0828   3.33433e+08
       0.0831   3.33433e+08
       0.0834   3.33433e+08
       0.0837   3.33433e+08
        0.084   3.33433e+08
       0.0843   3.33433e+08
       0.0846   3.33433e+08
       0.0849   3.33433e+08
       0.0852   3.33433e+08
       0.0855   3.33433e+08
       0.0858   3.33433e+08
       0.0861   3.33433e+08
       0.0864   3.33433e+08
       0.0867   3.33433e+08
        0.087   3.33433e+08
       0.0873   3.33433e+08
       0.0876   3.33433e+08
       0.0879   3.33433e+08
       0.0882   3.33433e+08
       0.0885   3.33433e+08
       0.0888   3.33433e+08
       0.0891   3.33433e+08
       0.0894   3.33433e+08
       0.0897   3.33433e+08
         0.09   3.33433e+08
       0.0903   3.33433e+08
       0.0906   3.33433e+08
       0.0909   3.33433e+08
       0.0912   3.33433e+08
       0.0915   3.33433e+08
       0.0918   3.33433e+08
       0.0921   3.33433e+08
       0.0924   3.33433e+08
       0.0927   3.33433e+08
        0.093   3.33433e+08
       0.0933   3.33433e+08
       0.0936   3.33433e+08
       0.0939   3.33433e+08
       0.0942   3.33433e+08
       0.0945   3.33433e+08
       0.0948   3.33433e+08
       0.0951   3.33433e+08
       0.0954   3.33433e+08
       0.0957   3.33433e+08
        0.096   3.33433e+08
       0.0963   3.33433e+08
       0.0966   3.33433e+08
       0.0969   3.33433e+08
       0.0972   3.33433e+08
       0.0975   3.33433e+08
       0.0978   3.33433e+08
       0.0981   3.33433e+08
       0.0984   3.33433e+08
       0.0987   3.33433e+08
        0.099   3.33433e+08
       0.0993   3.33433e+08
       0.0996   3.33433e+08
       0.0999   3.33433e+08
       0.1002   3.33433e+08
       0.1005   3.33433e+08
       0.1008   3.33433e+08
       0.1011   3.33433e+08
       0.1014   3.33433e+08
       0.1017   3.33433e+08
        0.102   3.33433e+08
       0.1023   3.33433e+08
       0.1026   3.33433e+08
       0.1029   3.33433e+08
       0.1032   3.33433e+08
       0.1035   3.33433e+08
       0.1038   3.33433e+08
       0.1041   3.33433e+08
       0.1044   3.33433e+08
       0.1047   3.33433e+08
        0.105   3.33433e+08
       0.1053   3.33433e+08
       0.1056   3.33433e+08
       0.1059   3.33433e+08
       0.1062   3.33433e+08
       0.1065   3.33433e+08
       0.1068   3.33433e+08
       0.1071   3.33433e+08
       0.1074   3.33433e+08
       0.1077   3.33433e+08
        0.108   3.33433e+08
       0.1083   3.33433e+08
       0.1086   3.33433e+08
       0.1089   3.33433e+08
       0.1092   3.33433e+08
       0.1095   3.33433e+08
       0.1098   3.33433e+08
       0.1101   3.33433e+08
       0.1104   3.33433e+08
       0.1107   3.33433e+08
        0.111   3.33433e+08
       0.1113   3.33433e+08
       0.1116   3.33433e+08
       0.1119   3.33433e+08
       0.1122   3.33433e+08
       0.1125   3.33433e+08
       0.1128   3.33433e+08
       0.1131   3.33433e+08
       0.1134   3.33433e+08
       0.1137   3.33433e+08
        0.114   3.33433e+08
       0.1143   3.33433e+08
       0.1146   3.33433e+08
       0.1149   3.33433e+08
       0.1152   3.33433e+08
       0.1155   3.33433e+08
       0.1158   3.33433e+08
       0.1161   3.33433e+08
       0.1164   3.33433e+08
       0.1167   3.33433e+08
        0.117   3.33433e+08
       0.1173   3.33433e+08
       0.1176   3.33433e+08
       0.1179   3.33433e+08
       0.1182   3.33433e+08
       0.1185   3.33433e+08
       0.1188   3.33433e+08
       0.1191   3.33433e+08
       0.1194   3.33433e+08
       0.1197   3.33433e+08
         0.12   3.33433e+08
       0.1203   3.33433e+08
       0.1206   3.33433e+08
       0.1209   3.33433e+08
       0.1212   3.33433e+08
       0.1215   3.33433e+08
       0.1218   3.33433e+08
       0.1221   3.33433e+08
       0.1224   3.33433e+08
       0.1227   3.33433e+08
        0.123   3.33433e+08
       0.1233   3.33433e+08
       0.1236   3.33433e+08
       0.1239   3.33433e+08
       0.1242   3.33433e+08
       0.1245   3.33433e+08
       0.1248   3.33433e+08
       0.1251   3.33433e+08
       0.1254   3.33433e+08
       0.1257   3.33433e+08
        0.126   3.33433e+08
       0.1263   3.33433e+08
       0.1266   3.33433e+08
       0.1269   3.33433e+08
       0.1272   3.33433e+08
       0.1275   3.33433e+08
       0.1278   3.33433e+08
       0.1281   3.33433e+08
       0.1284   3.33433e+08
       0.1287   3.33433e+08
        0.129   3.33433e+08
       0.1293   3.33433e+08
       0.1296   3.33433e+08
       0.1299   3.33433e+08
       0.1302   3.33433e+08
       0.1305   3.33433e+08
       0.1308   3.33433e+08
       0.1311   3.33433e+08
       0.1314   3.33433e+08
       0.1317   3.33433e+08
        0.132   3.33433e+08
       0.1323   3.33433e+08
       0.1326   3.33433e+08
       0.1329   3.33433e+08
       0.1332   3.33433e+08
       0.1335   3.33433e+08
       0.1338   3.33433e+08
       0.1341   3.33433e+08
       0.1344   3.33433e+08
       0.1347   3.33433e+08
        0.135   3.33433e+08
       0.1353   3.33433e+08
       0.1356   3.33433e+08
       0.1359   3.33433e+08
       0.1362   3.33433e+08
       0.1365   3.33433e+08
       0.1368   3.33433e+08
       0.1371   3.33433e+08
       0.1374   3.33433e+08
       0.1377   3.33433e+08
        0.138   3.33433e+08
       0.1383   3.33433e+08
       0.1386   3.33433e+08
       0.1389   3.33433e+08
       0.1392   3.33433e+08
       0.1395   3.33433e+08
       0.1398   3.33433e+08
       0.1401   3.33433e+08
       0.1404   3.33433e+08
       0.1407   3.33433e+08
        0.141   3.33433e+08
       0.1413   3.33433e+08
       0.1416   3.33433e+08
       0.1419   3.33433e+08
       0.1422   3.33433e+08
       0.1425   3.33433e+08
       0.1428   3.33433e+08
       0.1431   3.33433e+08
       0.1434   3.33433e+08
       0.1437   3.33433e+08
        0.144   3.33433e+08
       0.1443   3.33433e+08
       0.1446   3.33433e+08
       0.1449   3.33433e+08
       0.1452   3.33433e+08
       0.1455   3.33433e+08
       0.1458   3.33433e+08
       0.1461   3.33433e+08
       0.1464   3.33433e+08
       0.1467   3.33433e+08
        0.147   3.33433e+08
       0.1473   3.33433e+08
       0.1476   3.33433e+08
       0.1479   3.33433e+08
       0.1482   3.33433e+08
       0.1485   3.33433e+08
       0.1488   3.33433e+08
       0.1491   3.33433e+08
       0.1494   3.33433e+08
       0.1497   3.33433e+08
         0.15   3.33433e+08
       0.1503   3.33433e+08
       0.1506   3.33433e+08
       0.1509   3.33433e+08
       0.1512   3.33433e+08
       0.1515   3.33433e+08
       0.1518   3.33433e+08
       0.1521   3.33433e+08
       0.1524   3.33433e+08
       0.1527   3.33433e+08
        0.153   3.33433e+08
       0.1533   3.33433e+08
       0.1536   3.33433e+08
       0.1539   3.33433e+08
       0.1542   3.33433e+08
       0.1545   3.33433e+08
       0.1548   3.33433e+08
       0.1551   3.33433e+08
       0.1554   3.33433e+08
       0.1557   3.33433e+08
        0.156   3.33433e+08
       0.1563   3.33433e+08
       0.1566   3.33433e+08
       0.1569   3.33433e+08
       0.1572   3.33433e+08
       0.1575   3.33433e+08
       0.1578   3.33433e+08
       0.1581   3.33433e+08
       0.1584   3.33433e+08
       0.1587   3.33433e+08
        0.159   3.33433e+08
       0.1593   3.33433e+08
       0.1596   3.33433e+08
       0.1599   3.33433e+08
       0.1602   3.33433e+08
       0.1605   3.33433e+08
       0.1608   3.33433e+08
       0.1611   3.33433e+08
       0.1614   3.33433e+08
       0.1617   3.33433e+08
        0.162   3.33433e+08
       0.1623   3.33433e+08
       0.1626   3.33433e+08
       0.1629   3.33433e+08
       0.1632   3.33433e+08
       0.1635   3.33433e+08
       0.1638   3.33433e+08
       0.1641   3.33433e+08
       0.1644   3.33433e+08
       0.1647   3.33433e+08
        0.165   3.33433e+08
       0.1653   3.33433e+08
       0.1656   3.33433e+08
       0.1659   3.33433e+08
       0.1662   3.33433e+08
       0.1665   3.33433e+08
       0.1668   3.33433e+08
       0.1671   3.33433e+08
       0.1674   3.33433e+08
       0.1677   3.33433e+08
        0.168   3.33433e+08
       0.1683   3.33433e+08
       0.1686   3.33433e+08
       0.1689   3.33433e+08
       0.1692   3.33433e+08
       0.1695   3.33433e+08
       0.1698   3.33433e+08
       0.1701   3.33433e+08
       0.1704   3.33433e+08
       0.1707   3.33433e+08
        0.171   3.33433e+08
       0.1713   3.33433e+08
       0.1716   3.33433e+08
       0.1719   3.33433e+08
       0.1722   3.33433e+08
       0.1725   3.33433e+08
       0.1728   3.33433e+08
       0.1731   3.33433e+08
       0.1734   3.33433e+08
       0.1737   3.33433e+08
        0.174   3.33433e+08
       0.1743   3.33433e+08
       0.1746   3.33433e+08
       0.1749   3.33433e+08
       0.1752   3.33433e+08
       0.1755   3.33433e+08
       0.1758   3.33433e+08
       0.1761   3.33433e+08
       0.1764   3.33433e+08
       0.1767   3.33433e+08
        0.177   3.33433e+08
       0.1773   3.33433e+08
       0.1776   3.33433e+08
       0.1779   3.33433e+08
       0.1782   3.33433e+08
       0.1785   3.33433e+08
       0.1788   3.33433e+08
       0.1791   3.33433e+08
       0.1794   3.33433e+08
       0.1797   3.33433e+08
         0.18   3.33433e+08
       0.1803   3.33433e+08
       0.1806   3.33433e+08
       0.1809   3.33433e+08
       0.1812   3.33433e+08
       0.1815   3.33433e+08
       0.1818   3.33433e+08
       0.1821   3.33433e+08
       0.1824   3.33433e+08
       0.1827   3.33433e+08
        0.183   3.33433e+08
       0.1833   3.33433e+08
       0.1836   3.33433e+08
       0.1839   3.33433e+08
       0.1842   3.33433e+08
       0.1845   3.33433e+08
       0.1848   3.33433e+08
       0.1851   3.33433e+08
       0.1854   3.33433e+08
       0.1857   3.33433e+08
        0.186   3.33433e+08
       0.1863   3.33433e+08
       0.1866   3.33433e+08
       0.1869   3.33433e+08
       0.1872   3.33433e+08
       0.1875   3.33433e+08
       0.1878   3.33433e+08
       0.1881   3.33433e+08
       0.1884   3.33433e+08
       0.1887   3.33433e+08
        0.189   3.33433e+08
       0.1893   3.33433e+08
       0.1896   3.33433e+08
       0.1899   3.33433e+08
       0.1902   3.33433e+08
       0.1905   3.33433e+08
       0.1908   3.33433e+08
       0.1911   3.33433e+08
       0.1914   3.33433e+08
       0.1917   3.33433e+08
        0.192   3.33433e+08
       0.1923   3.33433e+08
       0.1926   3.33433e+08
       0.1929   3.33433e+08
       0.1932   3.33433e+08
       0.1935   3.33433e+08
       0.1938   3.33433e+08
       0.1941   3.33433e+08
       0.1944   3.33433e+08
       0.1947   3.33433e+08
        0.195   3.33433e+08
       0.1953   3.33433e+08
       0.1956   3.33433e+08
       0.1959   3.33433e+08
       0.1962   3.33433e+08
       0.1965   3.33433e+08
       0.1968   3.33433e+08
       0.1971   3.33433e+08
       0.1974   3.33433e+08
       0.1977   3.33433e+08
        0.198   3.33433e+08
       0.1983   3.33433e+08
       0.1986   3.33433e+08
       0.1989   3.33433e+08
       0.1992   3.33433e+08
       0.1995   3.33433e+08
       0.1998   3.33433e+08
       0.2001   3.33433e+08
       0.2004   3.33433e+08
       0.2007   3.33433e+08
        0.201   3.33433e+08
       0.2013   3.33433e+08
       0.2016   3.33433e+08
       0.2019   3.33433e+08
       0.2022   3.33433e+08
       0.2025   3.33433e+08
       0.2028   3.33433e+08
       0.2031   3.33433e+08
       0.2034   3.33433e+08
       0.2037   3.33433e+08
        0.204   3.33433e+08
       0.2043   3.33433e+08
       0.2046   3.33433e+08
       0.2049   3.33433e+08
       0.2052   3.33433e+08
       0.2055   3.33433e+08
       0.2058   3.33433e+08
       0.2061   3.33433e+08
       0.2064   3.33433e+08
       0.2067   3.33433e+08
        0.207   3.33433e+08
       0.2073   3.33433e+08
       0.2076   3.33433e+08
       0.2079   3.33433e+08
       0.2082   3.33433e+08
       0.2085   3.33433e+08
       0.2088   3.33433e+08
       0.2091   3.33433e+08
       0.2094   3.33433e+08
       0.2097   3.33433e+08
         0.21   3.33433e+08
       0.2103   3.33433e+08
       0.2106   3.33433e+08
       0.2109   3.33433e+08
       0.2112   3.33433e+08
       0.2115   3.33433e+08
       0.2118   3.33433e+08
       0.2121   3.33433e+08
       0.2124   3.33433e+08
       0.2127   3.33433e+08
        0.213   3.33433e+08
       0.2133   3.33433e+08
       0.2136   3.33433e+08
       0.2139   3.33433e+08
       0.2142   3.33433e+08
       0.2145   3.33433e+08
       0.2148   3.33433e+08
       0.2151   3.33433e+08
       0.2154   3.33433e+08
       0.2157   3.33433e+08
        0.216   3.33433e+08
       0.2163   3.33433e+08
       0.2166   3.33433e+08
       0.2169   3.33433e+08
       0.2172   3.33433e+08
       0.2175   3.33433e+08
       0.2178   3.33433e+08
       0.2181   3.33433e+08
       0.2184   3.33433e+08
       0.2187   3.33433e+08
        0.219   3.33433e+08
       0.2193   3.33433e+08
       0.2196   3.33433e+08
       0.2199   3.33433e+08
       0.2202   3.33433e+08
       0.2205   3.33433e+08
       0.2208   3.33433e+08
       0.2211   3.33433e+08
       0.2214   3.33433e+08
       0.2217   3.33433e+08
        0.222   3.33433e+08
       0.2223   3.33433e+08
       0.2226   3.33433e+08
       0.2229   3.33433e+08
       0.2232   3.33433e+08
       0.2235   3.33433e+08
       0.2238   3.33433e+08
       0.2241   3.33433e+08
       0.2244   3.33433e+08
       0.2247   3.33433e+08
        0.225   3.33433e+08
       0.2253   3.33433e+08
       0.2256   3.33433e+08
       0.2259   3.33433e+08
       0.2262   3.33433e+08
       0.2265   3.33433e+08
       0.2268   3.33433e+08
       0.2271   3.33433e+08
       0.2274   3.33433e+08
       0.2277   3.33433e+08
        0.228   3.33433e+08
       0.2283   3.33433e+08
       0.2286   3.33433e+08
       0.2289   3.33433e+08
       0.2292   3.33433e+08
       0.2295   3.33433e+08
       0.2298   3.33433e+08
       0.2301   3.33433e+08
       0.2304   3.33433e+08
       0.2307   3.33433e+08
        0.231   3.33433e+08
       0.2313   3.33433e+08
       0.2316   3.33433e+08
       0.2319   3.33433e+08
       0.2322   3.33433e+08
       0.2325   3.33433e+08
       0.2328   3.33433e+08
       0.2331   3.33433e+08
       0.2334   3.33433e+08
       0.2337   3.33433e+08
        0.234   3.33433e+08
       0.2343   3.33433e+08
       0.2346   3.33433e+08
       0.2349   3.33433e+08
       0.2352   3.33433e+08
       0.2355   3.33433e+08
       0.2358   3.33433e+08
       0.2361   3.33433e+08
       0.2364   3.33433e+08
       0.2367   3.33433e+08
        0.237   3.33433e+08
       0.2373   3.33433e+08
       0.2376   3.33433e+08
       0.2379   3.33433e+08
       0.2382   3.33433e+08
       0.2385   3.33433e+08
       0.2388   3.33433e+08
       0.2391   3.33433e+08
       0.2394   3.33433e+08
       0.2397   3.33433e+08
         0.24   3.33433e+08
       0.2403   3.33433e+08
       0.2406   3.33433e+08
       0.2409   3.33433e+08
       0.2412   3.33433e+08
       0.2415   3.33433e+08
       0.2418   3.33433e+08
       0.2421   3.33433e+08
       0.2424   3.33433e+08
       0.2427   3.33433e+08
        0.243   3.33433e+08
       0.2433   3.33433e+08
       0.2436   3.33433e+08
       0.2439   3.33433e+08
       0.2442   3.33433e+08
       0.2445   3.33433e+08
       0.2448   3.33433e+08
       0.2451   3.33433e+08
       0.2454   3.33433e+08
       0.2457   3.33433e+08
        0.246   3.33433e+08
       0.2463   3.33433e+08
       0.2466   3.33433e+08
       0.2469   3.33433e+08
       0.2472   3.33433e+08
       0.2475   3.33433e+08
       0.2478   3.33433e+08
       0.2481   3.33433e+08
       0.2484   3.33433e+08
       0.2487   3.33433e+08
        0.249   3.33433e+08
       0.2493   3.33433e+08
       0.2496   3.33433e+08
       0.2499   3.33433e+08
       0.2502   3.33433e+08
       0.2505   3.33433e+08
       0.2508   3.33433e+08
       0.2511   3.33433e+08
       0.2514   3.33433e+08
       0.2517   3.33433e+08
        0.252   3.33433e+08
       0.2523   3.33433e+08
       0.2526   3.33433e+08
       0.2529   3.33433e+08
       0.2532   3.33433e+08
       0.2535   3.33433e+08
       0.2538   3.33433e+08
       0.2541   3.33433e+08
       0.2544   3.33433e+08
       0.2547   3.33433e+08
        0.255   3.33433e+08
       0.2553   3.33433e+08
       0.2556   3.33433e+08
       0.2559   3.33433e+08
       0.2562   3.33433e+08
       0.2565   3.33433e+08
       0.2568   3.33433e+08
       0.2571   3.33433e+08
       0.2574   3.33433e+08
       0.2577   3.33433e+08
        0.258   3.33433e+08
       0.2583   3.33433e+08
       0.2586   3.33433e+08
       0.2589   3.33433e+08
       0.2592   3.33433e+08
       0.2595   3.33433e+08
       0.2598   3.33433e+08
       0.2601   3.33433e+08
       0.2604   3.33433e+08
       0.2607   3.33433e+08
        0.261   3.33433e+08
       0.2613   3.33433e+08
       0.2616   3.33433e+08
       0.2619   3.33433e+08
       0.2622   3.33433e+08
       0.2625   3.33433e+08
       0.2628   3.33433e+08
       0.2631   3.33433e+08
       0.2634   3.33433e+08
       0.2637   3.33433e+08
        0.264   3.33433e+08
       0.2643   3.33433e+08
       0.2646   3.33433e+08
       0.2649   3.33433e+08
       0.2652   3.33433e+08
       0.2655   3.33433e+08
       0.2658   3.33433e+08
       0.2661   3.33433e+08
       0.2664   3.33433e+08
       0.2667   3.33433e+08
        0.267   3.33433e+08
       0.2673   3.33433e+08
       0.2676   3.33433e+08
       0.2679   3.33433e+08
       0.2682   3.33433e+08
       0.2685   3.33433e+08
       0.2688   3.33433e+08
       0.2691   3.33433e+08
       0.2694   3.33433e+08
       0.2697   3.33433e+08
         0.27   3.33433e+08
       0.2703   3.33433e+08
       0.2706   3.33433e+08
       0.2709   3.33433e+08
       0.2712   3.33433e+08
       0.2715   3.33433e+08
       0.2718   3.33433e+08
       0.2721   3.33433e+08
       0.2724   3.33433e+08
       0.2727   3.33433e+08
        0.273   3.33433e+08
       0.2733   3.33433e+08
       0.2736   3.33433e+08
       0.2739   3.33433e+08
       0.2742   3.33433e+08
       0.2745   3.33433e+08
       0.2748   3.33433e+08
       0.2751   3.33433e+08
       0.2754   3.33433e+08
       0.2757   3.33433e+08
        0.276   3.33433e+08
       0.2763   3.33433e+08
       0.2766   3.33433e+08
       0.2769   3.33433e+08
       0.2772   3.33433e+08
       0.2775   3.33433e+08
       0.2778   3.33433e+08
       0.2781   3.33433e+08
       0.2784   3.33433e+08
       0.2787   3.33433e+08
        0.279   3.33433e+08
       0.2793   3.33433e+08
       0.2796   3.33433e+08
       0.2799   3.33433e+08
       0.2802   3.33433e+08
       0.2805   3.33433e+08
       0.2808   3.33433e+08
       0.2811   3.33433e+08
       0.2814   3.33433e+08
       0.2817   3.33433e+08
        0.282   3.33433e+08
       0.2823   3.33433e+08
       0.2826   3.33433e+08
       0.2829   3.33433e+08
       0.2832   3.33433e+08
       0.2835   3.33433e+08
       0.2838   3.33433e+08
       0.2841   3.33433e+08
       0.2844   3.33433e+08
       0.2847   3.33433e+08
        0.285   3.33433e+08
       0.2853   3.33433e+08
       0.2856   3.33433e+08
       0.2859   3.33433e+08
       0.2862   3.33433e+08
       0.2865   3.33433e+08
       0.2868   3.33433e+08
       0.2871   3.33433e+08
       0.2874   3.33433e+08
       0.2877   3.33433e+08
        0.288   3.33433e+08
       0.2883   3.33433e+08
       0.2886   3.33433e+08
       0.2889   3.33433e+08
       0.2892   3.33433e+08
       0.2895   3.33433e+08
       0.2898   3.33433e+08
       0.2901   3.33433e+08
       0.2904   3.33433e+08
       0.2907   3.33433e+08
        0.291   3.33433e+08
       0.2913   3.33433e+08
       0.2916   3.33433e+08
       0.2919   3.33433e+08
       0.2922   3.33433e+08
       0.2925   3.33433e+08
       0.2928   3.33433e+08
       0.2931   3.33433e+08
       0.2934   3.33433e+08
       0.2937   3.33433e+08
        0.294   3.33433e+08
       0.2943   3.33433e+08
       0.2946   3.33433e+08
       0.2949   3.33433e+08
       0.2952   3.33433e+08
       0.2955   3.33433e+08
       0.2958   3.33433e+08
       0.2961   3.33433e+08
       0.2964   3.33433e+08
       0.2967   3.33433e+08
        0.297   3.33433e+08
       0.2973   3.33433e+08
       0.2976   3.33433e+08
       0.2979   3.33433e+08
       0.2982   3.33433e+08
       0.2985   3.33433e+08
       0.2988   3.33433e+08
       0.2991   3.33433e+08
       0.2994   3.33433e+08
       0.2997   3.33433e+08
          0.3   3.33433e+08
